<?xml version="1.0"?>
<VTKFile type="UnstructuredGrid"  version="0.1"  >
<UnstructuredGrid>
<Piece  NumberOfPoints="41" NumberOfCells="40">
<Points>
<DataArray  type="Float64"  NumberOfComponents="3"  format="ascii">0 0 0  0.025 0 0  0.05 0 0  0.075 0 0  0.1 0 0  0.125 0 0  0.15 0 0  0.175 0 0  0.2 0 0  0.225 0 0  0.25 0 0  0.275 0 0  0.3 0 0  0.325 0 0  0.35 0 0  0.375 0 0  0.4 0 0  0.425 0 0  0.45 0 0  0.475 0 0  0.5 0 0  0.525 0 0  0.55 0 0  0.575 0 0  0.6 0 0  0.625 0 0  0.65 0 0  0.675 0 0  0.7 0 0  0.725 0 0  0.75 0 0  0.775 0 0  0.8 0 0  0.825 0 0  0.85 0 0  0.875 0 0  0.9 0 0  0.925 0 0  0.95 0 0  0.975 0 0  1 0 0  </DataArray>
</Points>
<Cells>
<DataArray  type="UInt32"  Name="connectivity"  format="ascii">0 1  1 2  2 3  3 4  4 5  5 6  6 7  7 8  8 9  9 10  10 11  11 12  12 13  13 14  14 15  15 16  16 17  17 18  18 19  19 20  20 21  21 22  22 23  23 24  24 25  25 26  26 27  27 28  28 29  29 30  30 31  31 32  32 33  33 34  34 35  35 36  36 37  37 38  38 39  39 40  </DataArray>
<DataArray  type="UInt32"  Name="offsets"  format="ascii">2 4 6 8 10 12 14 16 18 20 22 24 26 28 30 32 34 36 38 40 42 44 46 48 50 52 54 56 58 60 62 64 66 68 70 72 74 76 78 80 </DataArray>
<DataArray  type="UInt8"  Name="types"  format="ascii">3 3 3 3 3 3 3 3 3 3 3 3 3 3 3 3 3 3 3 3 3 3 3 3 3 3 3 3 3 3 3 3 3 3 3 3 3 3 3 3 </DataArray>
</Cells>
<PointData  Scalars="f_263"> 
<DataArray  type="Float64"  Name="f_263"  format="ascii">3.1257070619951265e-15  6.2511400493891961e-15  6.2503171981796245e-15  6.2489469578713871e-15  6.2470355338013162e-15  6.2445925967220142e-15  6.2416286581316159e-15  6.2381596257776366e-15  6.2342097662120682e-15  6.2298117035866064e-15  6.2250056828164020e-15  6.2198425996779239e-15  6.2143741819138571e-15  6.2086500929262271e-15  6.2027164723340152e-15  6.1966153581532168e-15  6.1903877715215435e-15  6.1840756561706247e-15  6.1777170709464519e-15  6.1713475774873392e-15  6.1649987927270890e-15  6.1587046433763977e-15  6.1525057527485739e-15  6.1464427425951323e-15  6.1405485452787545e-15  6.1348489415548307e-15  6.1293675653386289e-15  6.1241299502147930e-15  6.1191626495866520e-15  6.1144893437464154e-15  6.1101321007432160e-15  6.1061149821950142e-15  6.1024651821854618e-15  6.0992070495750672e-15  6.0963556404559887e-15  6.0939218787696467e-15  6.0919151415195653e-15  6.0903465467396228e-15  6.0892249898115157e-15  6.0885536181117668e-15  3.0441650714449112e-15  </DataArray> 
</PointData> 
</Piece>
</UnstructuredGrid>
</VTKFile>